<UPF version="2.0.1">
<PP_INFO>
Generated by new atomic code, or converted to UPF format
Author:
Generation date:
Pseudopotential type: NC
Element: Sb
Functional:  SLA  PZ   NOGX NOGC
Suggested minimum cutoff for wavefunctions:   0. Ry
Suggested minimum cutoff for charge density:   0. Ry
The Pseudo was generated with a Scalar-Relativistic Calculation
L component and cutoff radius for Local Potential:  0   0.0000
Valence configuration:
nl pn  l   occ       Rcut    Rcut US       E pseu
5S  0  0  2.00      0.000      0.000     0.000000
5P  0  1  3.00      0.000      0.000     0.000000
Generation configuration: not available.
</PP_INFO>
<!--
END OF HUMAN READABLE SECTION
-->
<PP_HEADER generated="Generated by new atomic code, or converted to UPF format" author="" date="" comment="" element="Sb" pseudo_type="NC" relativistic="scalar" is_ultrasoft="false" is_paw="false" is_coulomb="false" has_so="false" has_wfc="false" has_gipaw="false" paw_as_gipaw="false" core_correction="false" functional=" SLA  PZ   NOGX NOGC" z_valence="5.000000000000e0" total_psenergy="0.000000000000e0" wfc_cutoff="0.000000000000e0" rho_cutoff="0.000000000000e0" l_max="1" l_max_rho="0" l_local="0" mesh_size="603" number_of_wfc="2" number_of_proj="2"/>
<PP_MESH dx="2.500000000000e-2" mesh="603" xmin="-6.999999999999e0" rmax="6.144696022130e1" zmesh="5.100000000000e1">
<PP_R>
1.788003854030000e-5 1.833267387090000e-5 1.879676771950000e-5 1.927261015980000e-5
1.976049860880000e-5 2.026073801270000e-5 2.077364103740000e-5 2.129952826400000e-5
2.183872838910000e-5 2.239157843040000e-5 2.295842393710000e-5 2.353961920610000e-5
2.413552750340000e-5 2.474652129110000e-5 2.537298246010000e-5 2.601530256920000e-5
2.667388308920000e-5 2.734913565440000e-5 2.804148231980000e-5 2.875135582440000e-5
2.947919986230000e-5 3.022546935980000e-5 3.099063075950000e-5 3.177516231230000e-5
3.257955437600000e-5 3.340430972160000e-5 3.424994384830000e-5 3.511698530470000e-5
3.600597602020001e-5 3.691747164270000e-5 3.785204188680000e-5 3.881027088930000e-5
3.979275757440001e-5 4.080011602840000e-5 4.183297588309999e-5 4.289198270950000e-5
4.397779842129999e-5 4.509110168869999e-5 4.623258836260000e-5 4.740297190910001e-5
4.860298385620000e-5 4.983337425040001e-5 5.109491212570001e-5 5.238838598429999e-5
5.371460428960000e-5 5.507439597110000e-5 5.646861094289999e-5 5.789812063479999e-5
5.936381853679999e-5 6.086662075780000e-5 6.240746659820001e-5 6.398731913680001e-5
6.560716583280001e-5 6.726801914309998e-5 6.897091715509999e-5 7.071692423560000e-5
7.250713169570000e-5 7.434265847349999e-5 7.622465183290000e-5 7.815428808089998e-5
8.013277330319999e-5 8.216134411730000e-5 8.424126844609997e-5 8.637384631000000e-5
8.856041063950000e-5 9.080232810849999e-5 9.310099998850003e-5 9.545786302410001e-5
9.787439033159998e-5 1.003520923190000e-4 1.028925176310000e-4 1.054972541160000e-4
1.081679298190000e-4 1.109062139990000e-4 1.137138181730000e-4 1.165924971860000e-4
1.195440503040000e-4 1.225703223460000e-4 1.256732048290000e-4 1.288546371550000e-4
1.321166078250000e-4 1.354611556760000e-4 1.388903711580000e-4 1.424063976430000e-4
1.460114327630000e-4 1.497077297820000e-4 1.534975990040000e-4 1.573834092230000e-4
1.613675891960000e-4 1.654526291660000e-4 1.696410824140000e-4 1.739355668610000e-4
1.783387667000000e-4 1.828534340730000e-4 1.874823907950000e-4 1.922285301140000e-4
1.970948185220000e-4 2.020842976080000e-4 2.072000859580000e-4 2.124453811070000e-4
2.178234615340000e-4 2.233376887160000e-4 2.289915092230000e-4 2.347884568790000e-4
2.407321549620000e-4 2.468263184790001e-4 2.530747564800000e-4 2.594813744420000e-4
2.660501767100000e-4 2.727852689990000e-4 2.796908609610000e-4 2.867712688160000e-4
2.940309180490000e-4 3.014743461770000e-4 3.091062055850000e-4 3.169312664350000e-4
3.249544196420000e-4 3.331806799410000e-4 3.416151890100000e-4 3.502632186920001e-4
3.591301742890000e-4 3.682215979350000e-4 3.775431720660000e-4 3.871007229699999e-4
3.969002244280000e-4 4.069478014450000e-4 4.172497340860000e-4 4.278124613930000e-4
4.386425854150000e-4 4.497468753320001e-4 4.611322716859999e-4 4.728058907220000e-4
4.847750288300000e-4 4.970471671120000e-4 5.096299760540001e-4 5.225313203210000e-4
5.357592636720002e-4 5.493220740040000e-4 5.632282285140001e-4 5.774864190020001e-4
5.921055572999999e-4 6.070947808470000e-4 6.224634583929999e-4 6.382211958649999e-4
6.543778423589998e-4 6.709434963070001e-4 6.879285117809999e-4 7.053435049690000e-4
7.231993608089999e-4 7.415072397910000e-4 7.602785849360000e-4 7.795251289460001e-4
7.992589015369999e-4 8.194922369590000e-4 8.402377817069999e-4 8.615085024199999e-4
8.833176939910000e-4 9.056789878759998e-4 9.286063606110000e-4 9.521141425489999e-4
9.762170268209999e-4 1.000930078510000e-3 1.026268744090000e-3 1.052248861030000e-3
1.078886667770000e-3 1.106198813800000e-3 1.134202370090000e-3 1.162914839790000e-3
1.192354169120000e-3 1.222538758620000e-3 1.253487474640000e-3 1.285219661140000e-3
1.317755151760000e-3 1.351114282250000e-3 1.385317903150000e-3 1.420387392830000e-3
1.456344670870000e-3 1.493212211740000e-3 1.531013058850000e-3 1.569770838960000e-3
1.609509776940000e-3 1.650254710930000e-3 1.692031107830000e-3 1.734865079260000e-3
1.778783397830000e-3 1.823813513930000e-3 1.869983572850000e-3 1.917322432380000e-3
1.965859680840000e-3 2.015625655590000e-3 2.066651462000000e-3 2.118968992840000e-3
2.172610948280000e-3 2.227610856290000e-3 2.284003093600000e-3 2.341822907190000e-3
2.401106436330000e-3 2.461890735160000e-3 2.524213795840000e-3 2.588114572310000e-3
2.653633004640000e-3 2.720810043980000e-3 2.789687678170000e-3 2.860308957970000e-3
2.932718023970000e-3 3.006960134210000e-3 3.083081692420000e-3 3.161130277050000e-3
3.241154671010000e-3 3.323204892150000e-3 3.407332224520000e-3 3.493589250450000e-3
3.582029883390000e-3 3.672709401610000e-3 3.765684482760000e-3 3.861013239300000e-3
3.958755254800001e-3 4.058971621200000e-3 4.161724976990000e-3 4.267079546380001e-3
4.375101179380000e-3 4.485857393040000e-3 4.599417413599999e-3 4.715852219770000e-3
4.835234587090000e-3 4.957639133430000e-3 5.083142365610001e-3 5.211822727230000e-3
5.343760647730001e-3 5.479038592580000e-3 5.617741114910000e-3 5.759954908300000e-3
5.905768861020000e-3 6.055274111530000e-3 6.208564105470000e-3 6.365734654090000e-3
6.526883994080000e-3 6.692112849039999e-3 6.861524492380000e-3 7.035224811880001e-3
7.213322375910001e-3 7.395928501240001e-3 7.583157322640000e-3 7.775125864220001e-3
7.971954112559999e-3 8.173765091740002e-3 8.380684940169999e-3 8.592842989509998e-3
8.810371845440001e-3 9.033407470569999e-3 9.262089269430000e-3 9.496560175599999e-3
9.736966741010001e-3 9.983459227600001e-3 1.023619170120000e-2 1.049532212780000e-2
1.076101247240000e-2 1.103342880010000e-2 1.131274138000000e-2 1.159912479150000e-2
1.189275803360000e-2 1.219382463660000e-2 1.250251277690000e-2 1.281901539470000e-2
1.314353031440000e-2 1.347626036850000e-2 1.381741352390000e-2 1.416720301260000e-2
1.452584746430000e-2 1.489357104360000e-2 1.527060358960000e-2 1.565718076000000e-2
1.605354417800000e-2 1.645994158370000e-2 1.687662698870000e-2 1.730386083500000e-2
1.774191015760000e-2 1.819104875150000e-2 1.865155734320000e-2 1.912372376530000e-2
1.960784313730000e-2 2.010421804950000e-2 2.061315875250000e-2 2.113498335070000e-2
2.167001800150000e-2 2.221859711900000e-2 2.278106358290000e-2 2.335776895320000e-2
2.394907368940000e-2 2.455534737630000e-2 2.517696895470000e-2 2.581432695820000e-2
2.646781975640000e-2 2.713785580350000e-2 2.782485389400000e-2 2.852924342390000e-2
2.925146465960000e-2 2.999196901300000e-2 3.075121932330000e-2 3.152969014680000e-2
3.232786805290000e-2 3.314625192900000e-2 3.398535329150000e-2 3.484569660620001e-2
3.572781961550000e-2 3.663227367510000e-2 3.755962409830000e-2 3.851045050920000e-2
3.948534720530001e-2 4.048492352880000e-2 4.150980424729999e-2 4.256062994480000e-2
4.363805742140000e-2 4.474276010450000e-2 4.587542846910000e-2 4.703677046990000e-2
4.822751198350000e-2 4.944839726190001e-2 5.070018939830000e-2 5.198367080360001e-2
5.329964369530000e-2 5.464893059930000e-2 5.603237486400000e-2 5.745084118690000e-2
5.890521615580000e-2 6.039640880230000e-2 6.192535117040000e-2 6.349299889880000e-2
6.510033181840001e-2 6.674835456450000e-2 6.843809720509999e-2 7.017061588430000e-2
7.194699348270000e-2 7.376834029410000e-2 7.563579471950000e-2 7.755052397880000e-2
7.951372484009999e-2 8.152662436780000e-2 8.359048068960000e-2 8.570658378289998e-2
8.787625628110000e-2 9.010085430009999e-2 9.238176828609999e-2 9.472042388449999e-2
9.711828283130000e-2 9.957684386630000e-2 1.020976436700000e-1 1.046822578250000e-1
1.073323017990000e-1 1.100494319550000e-1 1.128353465880000e-1 1.156917869870000e-1
1.186205385180000e-1 1.216234317470000e-1 1.247023435800000e-1 1.278591984380000e-1
1.310959694560000e-1 1.344146797240000e-1 1.378174035410000e-1 1.413062677220000e-1
1.448834529200000e-1 1.485511949930000e-1 1.523117863980000e-1 1.561675776280000e-1
1.601209786780000e-1 1.641744605520000e-1 1.683305568070000e-1 1.725918651410000e-1
1.769610490090000e-1 1.814408392920000e-1 1.860340360070000e-1 1.907435100500000e-1
1.955722049960000e-1 2.005231389370000e-1 2.055994063670000e-1 2.108041801190000e-1
2.161407133460000e-1 2.216123415550000e-1 2.272224846910000e-1 2.329746492760000e-1
2.388724306020000e-1 2.449195149730000e-1 2.511196820130000e-1 2.574768070290000e-1
2.639948634310000e-1 2.706779252170000e-1 2.775301695170000e-1 2.845558792080000e-1
2.917594455860000e-1 2.991453711150000e-1 3.067182722390000e-1 3.144828822680000e-1
3.224440543350000e-1 3.306067644330000e-1 3.389761145210000e-1 3.475573357150000e-1
3.563557915580000e-1 3.653769813710000e-1 3.746265436910000e-1 3.841102597960000e-1
3.938340573170000e-1 4.038040139450000e-1 4.140263612260000e-1 4.245074884610000e-1
4.352539466950000e-1 4.462724528140000e-1 4.575698937439999e-1 4.691533307520000e-1
4.810300038650000e-1 4.932073363890000e-1 5.056929395530000e-1 5.184946172660000e-1
5.316203709930000e-1 5.450784047579999e-1 5.588771302700000e-1 5.730251721810000e-1
5.875313734780000e-1 6.024048010100000e-1 6.176547511520000e-1 6.332907556200000e-1
6.493225874250000e-1 6.657602669850000e-1 6.826140683839999e-1 6.998945257970000e-1
7.176124400720000e-1 7.357788854820000e-1 7.544052166480000e-1 7.735030756310000e-1
7.930843992170001e-1 8.131614263690000e-1 8.337467058840000e-1 8.548531042300000e-1
8.764938135940000e-1 8.986823601240001e-1 9.214326123839999e-1 9.447587900220000e-1
9.686754726570001e-1 9.931976089970000e-1 1.018340526170000e0 1.044119939330000e0
1.070551961430000e0 1.097653113370000e0 1.125440334220000e0 1.153930991930000e0
1.183142894070000e0 1.213094299030000e0 1.243803927410000e0 1.275290973750000e0
1.307575118450000e0 1.340676540170000e0 1.374615928370000e0 1.409414496270000e0
1.445093994110000e0 1.481676722740000e0 1.519185547550000e0 1.557643912790000e0
1.597075856180000e0 1.637506023960000e0 1.678959686320000e0 1.721462753130000e0
1.765041790210000e0 1.809724035860000e0 1.855537417940000e0 1.902510571310000e0
1.950672855720000e0 2.000054374170000e0 2.050685991710000e0 2.102599354750000e0
2.155826910830000e0 2.210401928900000e0 2.266358520140000e0 2.323731659230000e0
2.382557206250000e0 2.442871929080000e0 2.504713526390000e0 2.568120651190000e0
2.633132935000000e0 2.699791012610000e0 2.768136547480000e0 2.838212257810000e0
2.910061943190000e0 2.983730512010000e0 3.059264009540000e0 3.136709646650000e0
3.216115829410000e0 3.297532189250000e0 3.381009614060000e0 3.466600279930000e0
3.554357683830000e0 3.644336676980000e0 3.736593499190000e0 3.831185813970000e0
3.928172744600000e0 4.027614911070000e0 4.129574467970000e0 4.234115143350000e0
4.341302278510000e0 4.451202868930000e0 4.563885606030000e0 4.679420920210000e0
4.797881024790000e0 4.919339961190000e0 5.043873645210000e0 5.171559914450000e0
5.302478576980000e0 5.436711461240000e0 5.574342467140000e0 5.715457618540000e0
5.860145117000000e0 6.008495396930000e0 6.160601182070000e0 6.316557543500000e0
6.476461959010000e0 6.640414374080000e0 6.808517264290000e0 6.980875699430000e0
7.157597409120000e0 7.338792850200000e0 7.524575275710000e0 7.715060805710000e0
7.910368499860000e0 8.110620431819999e0 8.315941765580000e0 8.526460833650001e0
8.742309217300001e0 8.963621828799999e0 9.190536995730000e0 9.423196547460000e0
9.661745903790001e0 9.906334165820001e0 1.015711420920000e1 1.041424277960000e1
1.067788059070000e1 1.094819242480000e1 1.122534723560000e1 1.150951825380000e1
1.180088309550000e1 1.209962387340000e1 1.240592731000000e1 1.271998485510000e1
1.304199280480000e1 1.337215242450000e1 1.371067007480000e1 1.405775734020000e1
1.441363116160000e1 1.477851397170000e1 1.515263383400000e1 1.553622458580000e1
1.592952598370000e1 1.633278385390000e1 1.674625024560000e1 1.717018358890000e1
1.760484885590000e1 1.805051772650000e1 1.850746875830000e1 1.897598756050000e1
1.945636697260000e1 1.994890724750000e1 2.045391623880000e1 2.097170959360000e1
2.150261094960000e1 2.204695213740000e1 2.260507338790000e1 2.317732354520000e1
2.376406028420000e1 2.436565033440000e1 2.498246970930000e1 2.561490394100000e1
2.626334832150000e1 2.692820814960000e1 2.760989898440000e1 2.830884690490000e1
2.902548877620000e1 2.976027252280000e1 3.051365740860000e1 3.128611432350000e1
3.207812607840000e1 3.289018770620000e1 3.372280677210000e1 3.457650368990000e1
3.545181204820000e1 3.634927894300001e1 3.726946532040000e1 3.821294632690000e1
3.918031166870000e1 4.017216598080000e1 4.118912920430001e1 4.223183697440000e1
4.330094101740000e1 4.439710955810000e1 4.552102773750000e1 4.667339804100000e1
4.785494073770000e1 4.906639433020000e1 5.030851601640000e1 5.158208216270000e1
5.288788878960000e1 5.422675206860000e1 5.559950883280000e1 5.700701710000001e1
5.845015660870001e1 5.992982936790000e1 6.144696022130001e1
</PP_R>
<PP_RAB>
4.470009635070000e-7 4.583168467730000e-7 4.699191929870000e-7 4.818152539940001e-7
4.940124652200001e-7 5.065184503169999e-7 5.193410259350001e-7 5.324882066000001e-7
5.459682097280001e-7 5.597894607600001e-7 5.739605984270000e-7 5.884904801530000e-7
6.033881875849999e-7 6.186630322769999e-7 6.343245615030000e-7 6.503825642290001e-7
6.668470772290000e-7 6.837283913609999e-7 7.010370579940001e-7 7.187838956089999e-7
7.369799965580000e-7 7.556367339950000e-7 7.747657689880000e-7 7.943790578080000e-7
8.144888593990000e-7 8.351077430399998e-7 8.562485962059998e-7 8.779246326179999e-7
9.001494005040001e-7 9.229367910679999e-7 9.463010471699999e-7 9.702567722320000e-7
9.948189393610001e-7 1.020002900710000e-6 1.045824397080000e-6 1.072299567740000e-6
1.099444960530000e-6 1.127277542220000e-6 1.155814709060000e-6 1.185074297730000e-6
1.215074596410000e-6 1.245834356260000e-6 1.277372803140000e-6 1.309709649610000e-6
1.342865107240000e-6 1.376859899280000e-6 1.411715273570000e-6 1.447453015870000e-6
1.484095463420000e-6 1.521665518950000e-6 1.560186664960000e-6 1.599682978420000e-6
1.640179145820000e-6 1.681700478580000e-6 1.724272928880000e-6 1.767923105890000e-6
1.812678292390000e-6 1.858566461840000e-6 1.905616295820000e-6 1.953857202020000e-6
2.003319332580000e-6 2.054033602930000e-6 2.106031711150000e-6 2.159346157750000e-6
2.214010265990000e-6 2.270058202710000e-6 2.327524999710000e-6 2.386446575600000e-6
2.446859758290000e-6 2.508802307980000e-6 2.572312940779999e-6 2.637431352900000e-6
2.704198245470000e-6 2.772655349980000e-6 2.842845454330000e-6 2.914812429640000e-6
2.988601257610000e-6 3.064258058640000e-6 3.141830120710000e-6 3.221365928890001e-6
3.302915195630000e-6 3.386528891889999e-6 3.472259278949999e-6 3.560159941089999e-6
3.650285819080000e-6 3.742693244539999e-6 3.837439975109999e-6 3.934585230590000e-6
4.034189729910001e-6 4.136315729140000e-6 4.241027060350000e-6 4.348389171529999e-6
4.458469167500001e-6 4.571335851830000e-6 4.687059769870000e-6 4.805713252850000e-6
4.927370463060000e-6 5.052107440200000e-6 5.180002148950001e-6 5.311134527660000e-6
5.445586538350000e-6 5.583442217900001e-6 5.724787730590000e-6 5.869711421960000e-6
6.018303874050001e-6 6.170657961980000e-6 6.326868912000000e-6 6.487034361049999e-6
6.651254417749999e-6 6.819631724970000e-6 6.992271524020000e-6 7.169281720389998e-6
7.350772951210000e-6 7.536858654420000e-6 7.727655139630000e-6 7.923281660870001e-6
8.123860491060000e-6 8.329516998510000e-6 8.540379725240001e-6 8.756580467309998e-6
8.978254357220001e-6 9.205539948370001e-6 9.438579301659999e-6 9.677518074260000e-6
9.922505610689999e-6 1.017369503610000e-5 1.043124335210000e-5 1.069531153480000e-5
1.096606463540000e-5 1.124367188330000e-5 1.152830679220000e-5 1.182014726800000e-5
1.211937572080000e-5 1.242617917780000e-5 1.274074940140000e-5 1.306328300800000e-5
1.339398159180000e-5 1.373305185010000e-5 1.408070571290000e-5 1.443716047510000e-5
1.480263893250000e-5 1.517736952120000e-5 1.556158645980000e-5 1.595552989660000e-5
1.635944605900000e-5 1.677358740770000e-5 1.719821279450001e-5 1.763358762420000e-5
1.807998402020000e-5 1.853768099480000e-5 1.900696462340000e-5 1.948812822360000e-5
1.998147253840000e-5 2.048730592400000e-5 2.100594454270000e-5 2.153771256050000e-5
2.208294234980000e-5 2.264197469690000e-5 2.321515901530000e-5 2.380285356370000e-5
2.440542567050000e-5 2.502325196280000e-5 2.565671860220000e-5 2.630622152580000e-5
2.697216669430000e-5 2.765497034500000e-5 2.835505925240000e-5 2.907287099480000e-5
2.980885422800000e-5 3.056346896550000e-5 3.133718686600000e-5 3.213049152840000e-5
3.294387879399999e-5 3.377785705620000e-5 3.463294757860000e-5 3.550968482070000e-5
3.640861677170000e-5 3.733030529340000e-5 3.827532647120000e-5 3.924427097390000e-5
4.023774442349999e-5 4.125636777320000e-5 4.230077769579999e-5 4.337162698140000e-5
4.446958494580000e-5 4.559533784839999e-5 4.674958932129999e-5 4.793306080950001e-5
4.914649202100000e-5 5.039064138980001e-5 5.166628654989999e-5 5.297422482100000e-5
5.431527370700000e-5 5.569027140720001e-5 5.710007733990000e-5 5.854557267980000e-5
6.002766090830001e-5 6.154726837900000e-5 6.310534489599999e-5 6.470286430780002e-5
6.634082511599999e-5 6.802025109950000e-5 6.974219195420001e-5 7.150772394910000e-5
7.331795059930001e-5 7.517400335540001e-5 7.707704231059999e-5 7.902825692640000e-5
8.102886677529998e-5 8.308012230370000e-5 8.518330561299997e-5 8.733973126120000e-5
8.955074708470001e-5 9.181773504019999e-5 9.414211206900001e-5 9.652533098240001e-5
9.896888136989999e-5 1.014742905300000e-4 1.040431244250000e-4 1.066769886590000e-4
1.093775294850000e-4 1.121464348260000e-4 1.149854353400000e-4 1.178963054940000e-4
1.208808646770000e-4 1.239409783360000e-4 1.270785591400000e-4 1.302955681810000e-4
1.335940161930000e-4 1.369759648140000e-4 1.404435278730000e-4 1.439988727080000e-4
1.476442215260000e-4 1.513818527880000e-4 1.552141026370000e-4 1.591433663520000e-4
1.631720998520000e-4 1.673028212260000e-4 1.715381123090000e-4 1.758806202970000e-4
1.803330593980000e-4 1.848982125310000e-4 1.895789330660000e-4 1.943781466050000e-4
1.992988528140000e-4 2.043441272930000e-4 2.095171235040000e-4 2.148210747380000e-4
2.202592961360000e-4 2.258351867640000e-4 2.315522317360000e-4 2.374140043900000e-4
2.434241685250000e-4 2.495864806900000e-4 2.559047925300000e-4 2.623830531960000e-4
2.690253118110000e-4 2.758357200029999e-4 2.828185345000000e-4 2.899781197880000e-4
2.973189508400000e-4 3.048456159140001e-4 3.125628194220000e-4 3.204753848680000e-4
3.285882578610000e-4 3.369065092110000e-4 3.454353380969999e-4 3.541800753150000e-4
3.631461866090000e-4 3.723392760910000e-4 3.817650897410000e-4 3.914295190000000e-4
4.013386044500001e-4 4.114985395930000e-4 4.219156747180000e-4 4.325965208750000e-4
4.435477539389999e-4 4.547762187890000e-4 4.662889335790000e-4 4.780930941320000e-4
4.901960784310000e-4 5.026054512369999e-4 5.153289688120001e-4 5.283745837670000e-4
5.417504500370000e-4 5.554649279740000e-4 5.695265895730000e-4 5.839442238299998e-4
5.987268422350000e-4 6.138836844079999e-4 6.294242238670000e-4 6.453581739550001e-4
6.616954939100000e-4 6.784463950889998e-4 6.956213473500000e-4 7.132310855970001e-4
7.312866164910002e-4 7.497992253249999e-4 7.687804830830000e-4 7.882422536700001e-4
8.081967013240000e-4 8.286562982250000e-4 8.496338322880000e-4 8.711424151539999e-4
8.931954903880001e-4 9.158068418790000e-4 9.389906024580002e-4 9.627612627300000e-4
9.871336801329999e-4 1.012123088220000e-3 1.037745106180000e-3 1.064015748620000e-3
1.090951435540000e-3 1.118569002610000e-3 1.146885711730000e-3 1.175919261750000e-3
1.205687799590000e-3 1.236209931550000e-3 1.267504734960000e-3 1.299591770090000e-3
1.332491092380000e-3 1.366223264980000e-3 1.400809371600000e-3 1.436271029670000e-3
1.472630403900000e-3 1.509910220060000e-3 1.548133779260000e-3 1.587324972470000e-3
1.627508295460000e-3 1.668708864110000e-3 1.710952430130000e-3 1.754265397110000e-3
1.798674837070000e-3 1.844208507350000e-3 1.890894867990000e-3 1.938763099470000e-3
1.987843121000000e-3 2.038165609190000e-3 2.089762017240000e-3 2.142664594570000e-3
2.196906407030000e-3 2.252521357500000e-3 2.309544207150000e-3 2.368010597110000e-3
2.427957070780000e-3 2.489421096660000e-3 2.552441091750000e-3 2.617056445620000e-3
2.683307544960000e-3 2.751235798870000e-3 2.820883664710000e-3 2.892294674670000e-3
2.965513462950000e-3 3.040585793680000e-3 3.117558589510000e-3 3.196479960950000e-3
3.277399236410000e-3 3.360366993090000e-3 3.445435088520000e-3 3.532656693050000e-3
3.622086323010000e-3 3.713779874820000e-3 3.807794659950000e-3 3.904189440700001e-3
4.003024466940000e-3 4.104361513790000e-3 4.208263920190000e-3 4.314796628520000e-3
4.424026225210000e-3 4.536020982309999e-3 4.650850900179999e-3 4.768587751250000e-3
4.889305124909999e-3 5.013078473430000e-3 5.139985159179999e-3 5.270104502980000e-3
5.403517833650000e-3 5.540308538860000e-3 5.680562117270000e-3 5.824366231910000e-3
5.971810765050000e-3 6.122987874320001e-3 6.277992050330000e-3 6.436920175730000e-3
6.599871585790000e-3 6.766948130430000e-3 6.938254237930000e-3 7.113896980190000e-3
7.293986139639999e-3 7.478634277870000e-3 7.667956805970000e-3 7.862072056690000e-3
8.061101358380000e-3 8.265169110830001e-3 8.474402863020000e-3 8.688933392870000e-3
8.908894788940000e-3 9.134424534259999e-3 9.365663592270000e-3 9.602756494899999e-3
9.845851432940000e-3 1.009510034860000e-2 1.035065903070000e-2 1.061268721150000e-2
1.088134866740000e-2 1.115681132040000e-2 1.143924734360000e-2 1.172883326880000e-2
1.202575009660000e-2 1.233018340970000e-2 1.264232348880000e-2 1.296236543160000e-2
1.329050927480000e-2 1.362696011900000e-2 1.397192825670000e-2 1.432562930450000e-2
1.468828433700000e-2 1.506012002520000e-2 1.544136877880000e-2 1.583226889050000e-2
1.623306468560000e-2 1.664400667460000e-2 1.706535170960000e-2 1.749736314490000e-2
1.794031100180000e-2 1.839447213710000e-2 1.886013041620000e-2 1.933757689080000e-2
1.982710998040000e-2 2.032903565920000e-2 2.084366764710000e-2 2.137132760570000e-2
2.191234533990000e-2 2.246705900310000e-2 2.303581530960000e-2 2.361896975050000e-2
2.421688681640000e-2 2.482994022490000e-2 2.545851315430000e-2 2.610299848320000e-2
2.676379903590000e-2 2.744132783410000e-2 2.813600835560000e-2 2.884827479820000e-2
2.957857235160000e-2 3.032735747570000e-2 3.109509818540000e-2 3.188227434360000e-2
3.268937796120000e-2 3.351691350419999e-2 3.436539820920000e-2 3.523536240670000e-2
3.612734985269999e-2 3.704191806849999e-2 3.797963868890000e-2 3.894109781970000e-2
3.992689640440000e-2 4.093765059900000e-2 4.197399215790000e-2 4.303656882830000e-2
4.412604475520000e-2 4.524310089639999e-2 4.638843544849999e-2 4.756276428280000e-2
4.876682139310001e-2 5.000135935430000e-2 5.126714979270000e-2 5.256498386860001e-2
5.389567277060000e-2 5.526004822260000e-2 5.665896300349999e-2 5.809329148069999e-2
5.956393015620000e-2 6.107179822710000e-2 6.261783815979999e-2 6.420301627980001e-2
6.582832337499999e-2 6.749477531509999e-2 6.920341368700001e-2 7.095530644519999e-2
7.275154857970000e-2 7.459326280030000e-2 7.648160023840001e-2 7.841774116640000e-2
8.040289573519999e-2 8.243830473130000e-2 8.452524035139998e-2 8.666500699829999e-2
8.885894209570001e-2 9.110841692450000e-2 9.341483747970001e-2 9.577964534930000e-2
9.820431861509999e-2 1.006903727770000e-1 1.032393616990000e-1 1.058528785840000e-1
1.085325569630000e-1 1.112800717230000e-1 1.140971401510000e-1 1.169855230050000e-1
1.199470256200000e-1 1.229834990300000e-1 1.260968411300000e-1 1.292889978610000e-1
1.325619644250000e-1 1.359177865310000e-1 1.393585616780000e-1 1.428864404630000e-1
1.465036279250000e-1 1.502123849230000e-1 1.540150295520000e-1 1.579139385870000e-1
1.619115489750000e-1 1.660103593520000e-1 1.702129316070000e-1 1.745218924860000e-1
1.789399352280000e-1 1.834698212550000e-1 1.881143818930000e-1 1.928765201430000e-1
1.977592124960000e-1 2.027655107960000e-1 2.078985441400000e-1 2.131615208410000e-1
2.185577304330000e-1 2.240905457200000e-1 2.297634248930000e-1 2.355799136870000e-1
2.415436475950000e-1 2.476583541460000e-1 2.539278552300000e-1 2.603560694890000e-1
2.669470147680000e-1 2.737048106200000e-1 2.806336808890000e-1 2.877379563440000e-1
2.950220773880000e-1 3.024905968350000e-1 3.101481827510000e-1 3.179996213780000e-1
3.260498201200000e-1 3.343038106130000e-1 3.427667518710000e-1 3.514439335060000e-1
3.603407790400000e-1 3.694628492910000e-1 3.788158458510000e-1 3.884056146450000e-1
3.982381495920000e-1 4.083195963460000e-1 4.186562561400001e-1 4.292545897230000e-1
4.401212213970000e-1 4.512629431620000e-1 4.626867189570000e-1 4.743996890120000e-1
4.864091743160000e-1 4.987226811880000e-1 5.113479059710000e-1 5.242927398400000e-1
5.375652737390000e-1 5.511738034340000e-1 5.651268346979999e-1 5.794330886300000e-1
5.941015071040000e-1 6.091412583600000e-1 6.245617427320001e-1 6.403725985239999e-1
6.565837080360000e-1 6.732052037400001e-1 6.902474746100000e-1 7.077211726220000e-1
7.256372194039999e-1 7.440068130700000e-1 7.628414352140000e-1 7.821528580879999e-1
8.019531519590000e-1 8.222546926560000e-1 8.430701693020000e-1 8.644125922480001e-1
8.862953012040000e-1 9.087319735740000e-1 9.317366330100000e-1 9.553236581709999e-1
9.795077917179999e-1 1.004304149520000e0 1.029728230110000e0 1.055795924360000e0
1.082523525430000e0 1.109927738950000e0 1.138025693440000e0 1.166834951030000e0
1.196373518440000e0 1.226659858260000e0 1.257712900410000e0 1.289552054070000e0
1.322197219740000e0 1.355668801710000e0 1.389987720820000e0 1.425175427500000e0
1.461253915220000e0 1.498245734200000e0 1.536174005530000e0
</PP_RAB>
</PP_MESH>
<PP_LOCAL columns="4">
-1.409334494600000e0 -1.409334494700000e0 -1.409334494800000e0 -1.409334494900000e0
-1.409334495000000e0 -1.409334495100000e0 -1.409334495200000e0 -1.409334495300000e0
-1.409334495500000e0 -1.409334495600000e0 -1.409334495700000e0 -1.409334495900000e0
-1.409334496000000e0 -1.409334496200000e0 -1.409334496400000e0 -1.409334496500000e0
-1.409334496700000e0 -1.409334496900000e0 -1.409334497100000e0 -1.409334497300000e0
-1.409334497600000e0 -1.409334497800000e0 -1.409334498000000e0 -1.409334498300000e0
-1.409334498600000e0 -1.409334498900000e0 -1.409334499200000e0 -1.409334499500000e0
-1.409334499800000e0 -1.409334500200000e0 -1.409334500600000e0 -1.409334501000000e0
-1.409334501400000e0 -1.409334501800000e0 -1.409334502300000e0 -1.409334502700000e0
-1.409334503200000e0 -1.409334503800000e0 -1.409334504300000e0 -1.409334504900000e0
-1.409334505500000e0 -1.409334506200000e0 -1.409334506900000e0 -1.409334507600000e0
-1.409334508300000e0 -1.409334509100000e0 -1.409334509900000e0 -1.409334510800000e0
-1.409334511700000e0 -1.409334512700000e0 -1.409334513700000e0 -1.409334514800000e0
-1.409334515900000e0 -1.409334517100000e0 -1.409334518300000e0 -1.409334519600000e0
-1.409334521000000e0 -1.409334522400000e0 -1.409334523900000e0 -1.409334525500000e0
-1.409334527200000e0 -1.409334529000000e0 -1.409334530800000e0 -1.409334532700000e0
-1.409334534800000e0 -1.409334536900000e0 -1.409334539200000e0 -1.409334541600000e0
-1.409334544100000e0 -1.409334546700000e0 -1.409334549400000e0 -1.409334552300000e0
-1.409334555400000e0 -1.409334558600000e0 -1.409334562000000e0 -1.409334565500000e0
-1.409334569200000e0 -1.409334573100000e0 -1.409334577200000e0 -1.409334581600000e0
-1.409334586100000e0 -1.409334590900000e0 -1.409334595900000e0 -1.409334601200000e0
-1.409334606700000e0 -1.409334612600000e0 -1.409334618700000e0 -1.409334625200000e0
-1.409334631900000e0 -1.409334639100000e0 -1.409334646600000e0 -1.409334654400000e0
-1.409334662700000e0 -1.409334671400000e0 -1.409334680600000e0 -1.409334690200000e0
-1.409334700300000e0 -1.409334710900000e0 -1.409334722100000e0 -1.409334733900000e0
-1.409334746200000e0 -1.409334759200000e0 -1.409334772900000e0 -1.409334787200000e0
-1.409334802300000e0 -1.409334818200000e0 -1.409334834800000e0 -1.409334852400000e0
-1.409334870800000e0 -1.409334890200000e0 -1.409334910500000e0 -1.409334931900000e0
-1.409334954500000e0 -1.409334978100000e0 -1.409335003000000e0 -1.409335029100000e0
-1.409335056600000e0 -1.409335085500000e0 -1.409335115900000e0 -1.409335147900000e0
-1.409335181400000e0 -1.409335216700000e0 -1.409335253900000e0 -1.409335292900000e0
-1.409335333900000e0 -1.409335377000000e0 -1.409335422300000e0 -1.409335470000000e0
-1.409335520100000e0 -1.409335572700000e0 -1.409335628100000e0 -1.409335686300000e0
-1.409335747500000e0 -1.409335811800000e0 -1.409335879400000e0 -1.409335950500000e0
-1.409336025300000e0 -1.409336103800000e0 -1.409336186400000e0 -1.409336273200000e0
-1.409336364500000e0 -1.409336460500000e0 -1.409336561400000e0 -1.409336667400000e0
-1.409336778900000e0 -1.409336896100000e0 -1.409337019300000e0 -1.409337148800000e0
-1.409337285000000e0 -1.409337428200000e0 -1.409337578700000e0 -1.409337736900000e0
-1.409337903200000e0 -1.409338078000000e0 -1.409338261900000e0 -1.409338455100000e0
-1.409338658200000e0 -1.409338871800000e0 -1.409339096300000e0 -1.409339332300000e0